;;
;; Generated by CHARMM-GUI FF-Converter
;;
;; Correspondance:
;; jul316@lehigh.edu or wonpil@lehigh.edu
;;
;; GROMACS topology file for CARB
;;


[ moleculetype ]
; name	nrexcl
CARB	     3

[ atoms ]
; nr	type	resnr	residu	atom	cgnr	charge	mass
     1     CC3162      1     BXYL     C1      1     0.340000    12.0110   ; qtot  0.340
     2       HCA1      1     BXYL     H1      2     0.090000     1.0080   ; qtot  0.430
     3      OC311      1     BXYL     O1      3    -0.650000    15.9994   ; qtot -0.220
     4       HCP1      1     BXYL    HO1      4     0.420000     1.0080   ; qtot  0.200
     5     CC3263      1     BXYL     C5      5     0.020000    12.0110   ; qtot  0.220
     6       HCA2      1     BXYL    H51      6     0.090000     1.0080   ; qtot  0.310
     7       HCA2      1     BXYL    H52      7     0.090000     1.0080   ; qtot  0.400
     8     OC3C61      1     BXYL     O5      8    -0.400000    15.9994   ; qtot  0.000
     9     CC3161      1     BXYL     C2      9     0.140000    12.0110   ; qtot  0.140
    10       HCA1      1     BXYL     H2     10     0.090000     1.0080   ; qtot  0.230
    11      OC311      1     BXYL     O2     11    -0.650000    15.9994   ; qtot -0.420
    12       HCP1      1     BXYL    HO2     12     0.420000     1.0080   ; qtot -0.000
    13     CC3161      1     BXYL     C3     13     0.140000    12.0110   ; qtot  0.140
    14       HCA1      1     BXYL     H3     14     0.090000     1.0080   ; qtot  0.230
    15      OC311      1     BXYL     O3     15    -0.650000    15.9994   ; qtot -0.420
    16       HCP1      1     BXYL    HO3     16     0.420000     1.0080   ; qtot -0.000
    17     CC3161      1     BXYL     C4     17     0.090000    12.0110   ; qtot  0.090
    18       HCA1      1     BXYL     H4     18     0.090000     1.0080   ; qtot  0.180
    19      OC301      1     BXYL     O4     19    -0.360000    15.9994   ; qtot -0.180
    20     CC3162      2     BXYL     C1     20     0.290000    12.0110   ; qtot  0.110
    21       HCA1      2     BXYL     H1     21     0.090000     1.0080   ; qtot  0.200
    22     CC3263      2     BXYL     C5     22     0.020000    12.0110   ; qtot  0.220
    23       HCA2      2     BXYL    H51     23     0.090000     1.0080   ; qtot  0.310
    24       HCA2      2     BXYL    H52     24     0.090000     1.0080   ; qtot  0.400
    25     OC3C61      2     BXYL     O5     25    -0.400000    15.9994   ; qtot -0.000
    26     CC3161      2     BXYL     C2     26     0.140000    12.0110   ; qtot  0.140
    27       HCA1      2     BXYL     H2     27     0.090000     1.0080   ; qtot  0.230
    28      OC311      2     BXYL     O2     28    -0.650000    15.9994   ; qtot -0.420
    29       HCP1      2     BXYL    HO2     29     0.420000     1.0080   ; qtot -0.000
    30     CC3161      2     BXYL     C3     30     0.140000    12.0110   ; qtot  0.140
    31       HCA1      2     BXYL     H3     31     0.090000     1.0080   ; qtot  0.230
    32      OC311      2     BXYL     O3     32    -0.650000    15.9994   ; qtot -0.420
    33       HCP1      2     BXYL    HO3     33     0.420000     1.0080   ; qtot -0.000
    34     CC3161      2     BXYL     C4     34     0.090000    12.0110   ; qtot  0.090
    35       HCA1      2     BXYL     H4     35     0.090000     1.0080   ; qtot  0.180
    36      OC301      2     BXYL     O4     36    -0.360000    15.9994   ; qtot -0.180
    37     CC3162      3     BXYL     C1     37     0.290000    12.0110   ; qtot  0.110
    38       HCA1      3     BXYL     H1     38     0.090000     1.0080   ; qtot  0.200
    39     CC3263      3     BXYL     C5     39     0.020000    12.0110   ; qtot  0.220
    40       HCA2      3     BXYL    H51     40     0.090000     1.0080   ; qtot  0.310
    41       HCA2      3     BXYL    H52     41     0.090000     1.0080   ; qtot  0.400
    42     OC3C61      3     BXYL     O5     42    -0.400000    15.9994   ; qtot -0.000
    43     CC3161      3     BXYL     C2     43     0.140000    12.0110   ; qtot  0.140
    44       HCA1      3     BXYL     H2     44     0.090000     1.0080   ; qtot  0.230
    45      OC311      3     BXYL     O2     45    -0.650000    15.9994   ; qtot -0.420
    46       HCP1      3     BXYL    HO2     46     0.420000     1.0080   ; qtot -0.000
    47     CC3161      3     BXYL     C3     47     0.140000    12.0110   ; qtot  0.140
    48       HCA1      3     BXYL     H3     48     0.090000     1.0080   ; qtot  0.230
    49      OC311      3     BXYL     O3     49    -0.650000    15.9994   ; qtot -0.420
    50       HCP1      3     BXYL    HO3     50     0.420000     1.0080   ; qtot -0.000
    51     CC3161      3     BXYL     C4     51     0.090000    12.0110   ; qtot  0.090
    52       HCA1      3     BXYL     H4     52     0.090000     1.0080   ; qtot  0.180
    53      OC301      3     BXYL     O4     53    -0.360000    15.9994   ; qtot -0.180
    54     CC3162      4     BXYL     C1     54     0.290000    12.0110   ; qtot  0.110
    55       HCA1      4     BXYL     H1     55     0.090000     1.0080   ; qtot  0.200
    56     CC3263      4     BXYL     C5     56     0.020000    12.0110   ; qtot  0.220
    57       HCA2      4     BXYL    H51     57     0.090000     1.0080   ; qtot  0.310
    58       HCA2      4     BXYL    H52     58     0.090000     1.0080   ; qtot  0.400
    59     OC3C61      4     BXYL     O5     59    -0.400000    15.9994   ; qtot -0.000
    60     CC3161      4     BXYL     C2     60     0.140000    12.0110   ; qtot  0.140
    61       HCA1      4     BXYL     H2     61     0.090000     1.0080   ; qtot  0.230
    62      OC311      4     BXYL     O2     62    -0.650000    15.9994   ; qtot -0.420
    63       HCP1      4     BXYL    HO2     63     0.420000     1.0080   ; qtot -0.000
    64     CC3161      4     BXYL     C3     64     0.140000    12.0110   ; qtot  0.140
    65       HCA1      4     BXYL     H3     65     0.090000     1.0080   ; qtot  0.230
    66      OC311      4     BXYL     O3     66    -0.650000    15.9994   ; qtot -0.420
    67       HCP1      4     BXYL    HO3     67     0.420000     1.0080   ; qtot -0.000
    68     CC3161      4     BXYL     C4     68     0.090000    12.0110   ; qtot  0.090
    69       HCA1      4     BXYL     H4     69     0.090000     1.0080   ; qtot  0.180
    70      OC301      4     BXYL     O4     70    -0.360000    15.9994   ; qtot -0.180
    71     CC3162      5     BXYL     C1     71     0.290000    12.0110   ; qtot  0.110
    72       HCA1      5     BXYL     H1     72     0.090000     1.0080   ; qtot  0.200
    73     CC3263      5     BXYL     C5     73     0.020000    12.0110   ; qtot  0.220
    74       HCA2      5     BXYL    H51     74     0.090000     1.0080   ; qtot  0.310
    75       HCA2      5     BXYL    H52     75     0.090000     1.0080   ; qtot  0.400
    76     OC3C61      5     BXYL     O5     76    -0.400000    15.9994   ; qtot -0.000
    77     CC3161      5     BXYL     C2     77     0.140000    12.0110   ; qtot  0.140
    78       HCA1      5     BXYL     H2     78     0.090000     1.0080   ; qtot  0.230
    79      OC311      5     BXYL     O2     79    -0.650000    15.9994   ; qtot -0.420
    80       HCP1      5     BXYL    HO2     80     0.420000     1.0080   ; qtot -0.000
    81     CC3161      5     BXYL     C3     81     0.140000    12.0110   ; qtot  0.140
    82       HCA1      5     BXYL     H3     82     0.090000     1.0080   ; qtot  0.230
    83      OC311      5     BXYL     O3     83    -0.650000    15.9994   ; qtot -0.420
    84       HCP1      5     BXYL    HO3     84     0.420000     1.0080   ; qtot -0.000
    85     CC3161      5     BXYL     C4     85     0.090000    12.0110   ; qtot  0.090
    86       HCA1      5     BXYL     H4     86     0.090000     1.0080   ; qtot  0.180
    87      OC301      5     BXYL     O4     87    -0.360000    15.9994   ; qtot -0.180
    88     CC3162      6     BXYL     C1     88     0.290000    12.0110   ; qtot  0.110
    89       HCA1      6     BXYL     H1     89     0.090000     1.0080   ; qtot  0.200
    90     CC3263      6     BXYL     C5     90     0.020000    12.0110   ; qtot  0.220
    91       HCA2      6     BXYL    H51     91     0.090000     1.0080   ; qtot  0.310
    92       HCA2      6     BXYL    H52     92     0.090000     1.0080   ; qtot  0.400
    93     OC3C61      6     BXYL     O5     93    -0.400000    15.9994   ; qtot -0.000
    94     CC3161      6     BXYL     C2     94     0.140000    12.0110   ; qtot  0.140
    95       HCA1      6     BXYL     H2     95     0.090000     1.0080   ; qtot  0.230
    96      OC311      6     BXYL     O2     96    -0.650000    15.9994   ; qtot -0.420
    97       HCP1      6     BXYL    HO2     97     0.420000     1.0080   ; qtot -0.000
    98     CC3161      6     BXYL     C3     98     0.140000    12.0110   ; qtot  0.140
    99       HCA1      6     BXYL     H3     99     0.090000     1.0080   ; qtot  0.230
   100      OC311      6     BXYL     O3    100    -0.650000    15.9994   ; qtot -0.420
   101       HCP1      6     BXYL    HO3    101     0.420000     1.0080   ; qtot -0.000
   102     CC3161      6     BXYL     C4    102     0.140000    12.0110   ; qtot  0.140
   103       HCA1      6     BXYL     H4    103     0.090000     1.0080   ; qtot  0.230
   104      OC311      6     BXYL     O4    104    -0.650000    15.9994   ; qtot -0.420
   105       HCP1      6     BXYL    HO4    105     0.420000     1.0080   ; qtot -0.000

[ bonds ]
; ai	aj	funct	b0	Kb
    1     2     1
    1     3     1
    1     8     1
    1     9     1
    3     4     1
    5     6     1
    5     7     1
    5     8     1
   17     5     1
    9    10     1
    9    11     1
    9    13     1
   11    12     1
   13    14     1
   13    15     1
   13    17     1
   15    16     1
   17    18     1
   17    19     1
   19    20     1
   20    21     1
   20    25     1
   20    26     1
   22    23     1
   22    24     1
   22    25     1
   34    22     1
   26    27     1
   26    28     1
   26    30     1
   28    29     1
   30    31     1
   30    32     1
   30    34     1
   32    33     1
   34    35     1
   34    36     1
   36    37     1
   37    38     1
   37    42     1
   37    43     1
   39    40     1
   39    41     1
   39    42     1
   51    39     1
   43    44     1
   43    45     1
   43    47     1
   45    46     1
   47    48     1
   47    49     1
   47    51     1
   49    50     1
   51    52     1
   51    53     1
   53    54     1
   54    55     1
   54    59     1
   54    60     1
   56    57     1
   56    58     1
   56    59     1
   68    56     1
   60    61     1
   60    62     1
   60    64     1
   62    63     1
   64    65     1
   64    66     1
   64    68     1
   66    67     1
   68    69     1
   68    70     1
   70    71     1
   71    72     1
   71    76     1
   71    77     1
   73    74     1
   73    75     1
   73    76     1
   85    73     1
   77    78     1
   77    79     1
   77    81     1
   79    80     1
   81    82     1
   81    83     1
   81    85     1
   83    84     1
   85    86     1
   85    87     1
   87    88     1
   88    89     1
   88    93     1
   88    94     1
   90    91     1
   90    92     1
   90    93     1
  102    90     1
   94    95     1
   94    96     1
   94    98     1
   96    97     1
   98    99     1
   98   100     1
   98   102     1
  100   101     1
  102   103     1
  102   104     1
  104   105     1

[ pairs ]
; ai	aj	funct	c6	c12 or
; ai	aj	funct	fudgeQQ	q1	q2	c6	c12
    1     6     1
    1     7     1
    1    12     1
    1    14     1
    1    15     1
    1    17     1
    2     4     1
    2     5     1
    2    10     1
    2    11     1
    2    13     1
    3     5     1
    3    10     1
    3    11     1
    3    13     1
    4     8     1
    4     9     1
    5     9     1
    5    14     1
    5    15     1
    5    20     1
    6    13     1
    6    18     1
    6    19     1
    7    13     1
    7    18     1
    7    19     1
    8    10     1
    8    11     1
    8    13     1
    8    18     1
    8    19     1
    9    16     1
    9    18     1
    9    19     1
   10    12     1
   10    14     1
   10    15     1
   10    17     1
   11    14     1
   11    15     1
   11    17     1
   12    13     1
   13    20     1
   14    16     1
   14    18     1
   14    19     1
   15    18     1
   15    19     1
   16    17     1
   17    21     1
   17    25     1
   17    26     1
   18    20     1
   19    22     1
   19    27     1
   19    28     1
   19    30     1
   20    23     1
   20    24     1
   20    29     1
   20    31     1
   20    32     1
   20    34     1
   21    22     1
   21    27     1
   21    28     1
   21    30     1
   22    26     1
   22    31     1
   22    32     1
   22    37     1
   23    30     1
   23    35     1
   23    36     1
   24    30     1
   24    35     1
   24    36     1
   25    27     1
   25    28     1
   25    30     1
   25    35     1
   25    36     1
   26    33     1
   26    35     1
   26    36     1
   27    29     1
   27    31     1
   27    32     1
   27    34     1
   28    31     1
   28    32     1
   28    34     1
   29    30     1
   30    37     1
   31    33     1
   31    35     1
   31    36     1
   32    35     1
   32    36     1
   33    34     1
   34    38     1
   34    42     1
   34    43     1
   35    37     1
   36    39     1
   36    44     1
   36    45     1
   36    47     1
   37    40     1
   37    41     1
   37    46     1
   37    48     1
   37    49     1
   37    51     1
   38    39     1
   38    44     1
   38    45     1
   38    47     1
   39    43     1
   39    48     1
   39    49     1
   39    54     1
   40    47     1
   40    52     1
   40    53     1
   41    47     1
   41    52     1
   41    53     1
   42    44     1
   42    45     1
   42    47     1
   42    52     1
   42    53     1
   43    50     1
   43    52     1
   43    53     1
   44    46     1
   44    48     1
   44    49     1
   44    51     1
   45    48     1
   45    49     1
   45    51     1
   46    47     1
   47    54     1
   48    50     1
   48    52     1
   48    53     1
   49    52     1
   49    53     1
   50    51     1
   51    55     1
   51    59     1
   51    60     1
   52    54     1
   53    56     1
   53    61     1
   53    62     1
   53    64     1
   54    57     1
   54    58     1
   54    63     1
   54    65     1
   54    66     1
   54    68     1
   55    56     1
   55    61     1
   55    62     1
   55    64     1
   56    60     1
   56    65     1
   56    66     1
   56    71     1
   57    64     1
   57    69     1
   57    70     1
   58    64     1
   58    69     1
   58    70     1
   59    61     1
   59    62     1
   59    64     1
   59    69     1
   59    70     1
   60    67     1
   60    69     1
   60    70     1
   61    63     1
   61    65     1
   61    66     1
   61    68     1
   62    65     1
   62    66     1
   62    68     1
   63    64     1
   64    71     1
   65    67     1
   65    69     1
   65    70     1
   66    69     1
   66    70     1
   67    68     1
   68    72     1
   68    76     1
   68    77     1
   69    71     1
   70    73     1
   70    78     1
   70    79     1
   70    81     1
   71    74     1
   71    75     1
   71    80     1
   71    82     1
   71    83     1
   71    85     1
   72    73     1
   72    78     1
   72    79     1
   72    81     1
   73    77     1
   73    82     1
   73    83     1
   73    88     1
   74    81     1
   74    86     1
   74    87     1
   75    81     1
   75    86     1
   75    87     1
   76    78     1
   76    79     1
   76    81     1
   76    86     1
   76    87     1
   77    84     1
   77    86     1
   77    87     1
   78    80     1
   78    82     1
   78    83     1
   78    85     1
   79    82     1
   79    83     1
   79    85     1
   80    81     1
   81    88     1
   82    84     1
   82    86     1
   82    87     1
   83    86     1
   83    87     1
   84    85     1
   85    89     1
   85    93     1
   85    94     1
   86    88     1
   87    90     1
   87    95     1
   87    96     1
   87    98     1
   88    91     1
   88    92     1
   88    97     1
   88    99     1
   88   100     1
   88   102     1
   89    90     1
   89    95     1
   89    96     1
   89    98     1
   90    94     1
   90    99     1
   90   100     1
   90   105     1
   91    98     1
   91   103     1
   91   104     1
   92    98     1
   92   103     1
   92   104     1
   93    95     1
   93    96     1
   93    98     1
   93   103     1
   93   104     1
   94   101     1
   94   103     1
   94   104     1
   95    97     1
   95    99     1
   95   100     1
   95   102     1
   96    99     1
   96   100     1
   96   102     1
   97    98     1
   98   105     1
   99   101     1
   99   103     1
   99   104     1
  100   103     1
  100   104     1
  101   102     1
  103   105     1

[ angles ] 
; ai	aj	ak	funct	th0	cth	S0	Kub
    2     1     3     5
    2     1     8     5
    2     1     9     5
    3     1     8     5
    3     1     9     5
    8     1     9     5
    1     3     4     5
    6     5     7     5
    6     5     8     5
    6     5    17     5
    7     5     8     5
    7     5    17     5
    8     5    17     5
    1     8     5     5
    1     9    10     5
    1     9    11     5
    1     9    13     5
   10     9    11     5
   10     9    13     5
   11     9    13     5
    9    11    12     5
    9    13    14     5
    9    13    15     5
    9    13    17     5
   14    13    15     5
   14    13    17     5
   15    13    17     5
   13    15    16     5
    5    17    13     5
    5    17    18     5
    5    17    19     5
   13    17    18     5
   13    17    19     5
   18    17    19     5
   17    19    20     5
   19    20    21     5
   19    20    25     5
   19    20    26     5
   21    20    25     5
   21    20    26     5
   25    20    26     5
   23    22    24     5
   23    22    25     5
   23    22    34     5
   24    22    25     5
   24    22    34     5
   25    22    34     5
   20    25    22     5
   20    26    27     5
   20    26    28     5
   20    26    30     5
   27    26    28     5
   27    26    30     5
   28    26    30     5
   26    28    29     5
   26    30    31     5
   26    30    32     5
   26    30    34     5
   31    30    32     5
   31    30    34     5
   32    30    34     5
   30    32    33     5
   22    34    30     5
   22    34    35     5
   22    34    36     5
   30    34    35     5
   30    34    36     5
   35    34    36     5
   34    36    37     5
   36    37    38     5
   36    37    42     5
   36    37    43     5
   38    37    42     5
   38    37    43     5
   42    37    43     5
   40    39    41     5
   40    39    42     5
   40    39    51     5
   41    39    42     5
   41    39    51     5
   42    39    51     5
   37    42    39     5
   37    43    44     5
   37    43    45     5
   37    43    47     5
   44    43    45     5
   44    43    47     5
   45    43    47     5
   43    45    46     5
   43    47    48     5
   43    47    49     5
   43    47    51     5
   48    47    49     5
   48    47    51     5
   49    47    51     5
   47    49    50     5
   39    51    47     5
   39    51    52     5
   39    51    53     5
   47    51    52     5
   47    51    53     5
   52    51    53     5
   51    53    54     5
   53    54    55     5
   53    54    59     5
   53    54    60     5
   55    54    59     5
   55    54    60     5
   59    54    60     5
   57    56    58     5
   57    56    59     5
   57    56    68     5
   58    56    59     5
   58    56    68     5
   59    56    68     5
   54    59    56     5
   54    60    61     5
   54    60    62     5
   54    60    64     5
   61    60    62     5
   61    60    64     5
   62    60    64     5
   60    62    63     5
   60    64    65     5
   60    64    66     5
   60    64    68     5
   65    64    66     5
   65    64    68     5
   66    64    68     5
   64    66    67     5
   56    68    64     5
   56    68    69     5
   56    68    70     5
   64    68    69     5
   64    68    70     5
   69    68    70     5
   68    70    71     5
   70    71    72     5
   70    71    76     5
   70    71    77     5
   72    71    76     5
   72    71    77     5
   76    71    77     5
   74    73    75     5
   74    73    76     5
   74    73    85     5
   75    73    76     5
   75    73    85     5
   76    73    85     5
   71    76    73     5
   71    77    78     5
   71    77    79     5
   71    77    81     5
   78    77    79     5
   78    77    81     5
   79    77    81     5
   77    79    80     5
   77    81    82     5
   77    81    83     5
   77    81    85     5
   82    81    83     5
   82    81    85     5
   83    81    85     5
   81    83    84     5
   73    85    81     5
   73    85    86     5
   73    85    87     5
   81    85    86     5
   81    85    87     5
   86    85    87     5
   85    87    88     5
   87    88    89     5
   87    88    93     5
   87    88    94     5
   89    88    93     5
   89    88    94     5
   93    88    94     5
   91    90    92     5
   91    90    93     5
   91    90   102     5
   92    90    93     5
   92    90   102     5
   93    90   102     5
   88    93    90     5
   88    94    95     5
   88    94    96     5
   88    94    98     5
   95    94    96     5
   95    94    98     5
   96    94    98     5
   94    96    97     5
   94    98    99     5
   94    98   100     5
   94    98   102     5
   99    98   100     5
   99    98   102     5
  100    98   102     5
   98   100   101     5
   90   102    98     5
   90   102   103     5
   90   102   104     5
   98   102   103     5
   98   102   104     5
  103   102   104     5
  102   104   105     5

[ dihedrals ]
; ai	aj	ak	al	funct	phi0	cp	mult
    2     1     3     4     9
    2     1     8     5     9
    3     1     8     5     9
    2     1     9    10     9
    2     1     9    11     9
    2     1     9    13     9
    3     1     9    10     9
    3     1     9    11     9
    3     1     9    13     9
    8     1     9    10     9
    8     1     9    11     9
    8     1     9    13     9
    4     3     1     8     9
    4     3     1     9     9
    6     5    17    13     9
    6     5    17    18     9
    6     5    17    19     9
    7     5    17    13     9
    7     5    17    18     9
    7     5    17    19     9
    8     5    17    13     9
    8     5    17    18     9
    8     5    17    19     9
    5     8     1     9     9
    1     8     5     6     9
    1     8     5     7     9
    1     8     5    17     9
    1     9    11    12     9
   10     9    11    12     9
    1     9    13    14     9
    1     9    13    15     9
    1     9    13    17     9
   10     9    13    14     9
   10     9    13    15     9
   10     9    13    17     9
   11     9    13    14     9
   11     9    13    15     9
   11     9    13    17     9
   12    11     9    13     9
    9    13    15    16     9
   14    13    15    16     9
    9    13    17    18     9
    9    13    17    19     9
   14    13    17    18     9
   14    13    17    19     9
   15    13    17    18     9
   15    13    17    19     9
   16    15    13    17     9
    5    17    13     9     9
    5    17    13    14     9
    5    17    13    15     9
    5    17    19    20     9
   13    17    19    20     9
   18    17    19    20     9
   17    19    20    21     9
   17    19    20    25     9
   17    19    20    26     9
   19    20    25    22     9
   21    20    25    22     9
   19    20    26    27     9
   19    20    26    28     9
   19    20    26    30     9
   21    20    26    27     9
   21    20    26    28     9
   21    20    26    30     9
   25    20    26    27     9
   25    20    26    28     9
   25    20    26    30     9
   23    22    34    30     9
   23    22    34    35     9
   23    22    34    36     9
   24    22    34    30     9
   24    22    34    35     9
   24    22    34    36     9
   25    22    34    30     9
   25    22    34    35     9
   25    22    34    36     9
   22    25    20    26     9
   20    25    22    23     9
   20    25    22    24     9
   20    25    22    34     9
   20    26    28    29     9
   27    26    28    29     9
   20    26    30    31     9
   20    26    30    32     9
   20    26    30    34     9
   27    26    30    31     9
   27    26    30    32     9
   27    26    30    34     9
   28    26    30    31     9
   28    26    30    32     9
   28    26    30    34     9
   29    28    26    30     9
   26    30    32    33     9
   31    30    32    33     9
   26    30    34    35     9
   26    30    34    36     9
   31    30    34    35     9
   31    30    34    36     9
   32    30    34    35     9
   32    30    34    36     9
   33    32    30    34     9
   22    34    30    26     9
   22    34    30    31     9
   22    34    30    32     9
   22    34    36    37     9
   30    34    36    37     9
   35    34    36    37     9
   34    36    37    38     9
   34    36    37    42     9
   34    36    37    43     9
   36    37    42    39     9
   38    37    42    39     9
   36    37    43    44     9
   36    37    43    45     9
   36    37    43    47     9
   38    37    43    44     9
   38    37    43    45     9
   38    37    43    47     9
   42    37    43    44     9
   42    37    43    45     9
   42    37    43    47     9
   40    39    51    47     9
   40    39    51    52     9
   40    39    51    53     9
   41    39    51    47     9
   41    39    51    52     9
   41    39    51    53     9
   42    39    51    47     9
   42    39    51    52     9
   42    39    51    53     9
   39    42    37    43     9
   37    42    39    40     9
   37    42    39    41     9
   37    42    39    51     9
   37    43    45    46     9
   44    43    45    46     9
   37    43    47    48     9
   37    43    47    49     9
   37    43    47    51     9
   44    43    47    48     9
   44    43    47    49     9
   44    43    47    51     9
   45    43    47    48     9
   45    43    47    49     9
   45    43    47    51     9
   46    45    43    47     9
   43    47    49    50     9
   48    47    49    50     9
   43    47    51    52     9
   43    47    51    53     9
   48    47    51    52     9
   48    47    51    53     9
   49    47    51    52     9
   49    47    51    53     9
   50    49    47    51     9
   39    51    47    43     9
   39    51    47    48     9
   39    51    47    49     9
   39    51    53    54     9
   47    51    53    54     9
   52    51    53    54     9
   51    53    54    55     9
   51    53    54    59     9
   51    53    54    60     9
   53    54    59    56     9
   55    54    59    56     9
   53    54    60    61     9
   53    54    60    62     9
   53    54    60    64     9
   55    54    60    61     9
   55    54    60    62     9
   55    54    60    64     9
   59    54    60    61     9
   59    54    60    62     9
   59    54    60    64     9
   57    56    68    64     9
   57    56    68    69     9
   57    56    68    70     9
   58    56    68    64     9
   58    56    68    69     9
   58    56    68    70     9
   59    56    68    64     9
   59    56    68    69     9
   59    56    68    70     9
   56    59    54    60     9
   54    59    56    57     9
   54    59    56    58     9
   54    59    56    68     9
   54    60    62    63     9
   61    60    62    63     9
   54    60    64    65     9
   54    60    64    66     9
   54    60    64    68     9
   61    60    64    65     9
   61    60    64    66     9
   61    60    64    68     9
   62    60    64    65     9
   62    60    64    66     9
   62    60    64    68     9
   63    62    60    64     9
   60    64    66    67     9
   65    64    66    67     9
   60    64    68    69     9
   60    64    68    70     9
   65    64    68    69     9
   65    64    68    70     9
   66    64    68    69     9
   66    64    68    70     9
   67    66    64    68     9
   56    68    64    60     9
   56    68    64    65     9
   56    68    64    66     9
   56    68    70    71     9
   64    68    70    71     9
   69    68    70    71     9
   68    70    71    72     9
   68    70    71    76     9
   68    70    71    77     9
   70    71    76    73     9
   72    71    76    73     9
   70    71    77    78     9
   70    71    77    79     9
   70    71    77    81     9
   72    71    77    78     9
   72    71    77    79     9
   72    71    77    81     9
   76    71    77    78     9
   76    71    77    79     9
   76    71    77    81     9
   74    73    85    81     9
   74    73    85    86     9
   74    73    85    87     9
   75    73    85    81     9
   75    73    85    86     9
   75    73    85    87     9
   76    73    85    81     9
   76    73    85    86     9
   76    73    85    87     9
   73    76    71    77     9
   71    76    73    74     9
   71    76    73    75     9
   71    76    73    85     9
   71    77    79    80     9
   78    77    79    80     9
   71    77    81    82     9
   71    77    81    83     9
   71    77    81    85     9
   78    77    81    82     9
   78    77    81    83     9
   78    77    81    85     9
   79    77    81    82     9
   79    77    81    83     9
   79    77    81    85     9
   80    79    77    81     9
   77    81    83    84     9
   82    81    83    84     9
   77    81    85    86     9
   77    81    85    87     9
   82    81    85    86     9
   82    81    85    87     9
   83    81    85    86     9
   83    81    85    87     9
   84    83    81    85     9
   73    85    81    77     9
   73    85    81    82     9
   73    85    81    83     9
   73    85    87    88     9
   81    85    87    88     9
   86    85    87    88     9
   85    87    88    89     9
   85    87    88    93     9
   85    87    88    94     9
   87    88    93    90     9
   89    88    93    90     9
   87    88    94    95     9
   87    88    94    96     9
   87    88    94    98     9
   89    88    94    95     9
   89    88    94    96     9
   89    88    94    98     9
   93    88    94    95     9
   93    88    94    96     9
   93    88    94    98     9
   91    90   102    98     9
   91    90   102   103     9
   91    90   102   104     9
   92    90   102    98     9
   92    90   102   103     9
   92    90   102   104     9
   93    90   102    98     9
   93    90   102   103     9
   93    90   102   104     9
   90    93    88    94     9
   88    93    90    91     9
   88    93    90    92     9
   88    93    90   102     9
   88    94    96    97     9
   95    94    96    97     9
   88    94    98    99     9
   88    94    98   100     9
   88    94    98   102     9
   95    94    98    99     9
   95    94    98   100     9
   95    94    98   102     9
   96    94    98    99     9
   96    94    98   100     9
   96    94    98   102     9
   97    96    94    98     9
   94    98   100   101     9
   99    98   100   101     9
   94    98   102   103     9
   94    98   102   104     9
   99    98   102   103     9
   99    98   102   104     9
  100    98   102   103     9
  100    98   102   104     9
  101   100    98   102     9
   90   102    98    94     9
   90   102    98    99     9
   90   102    98   100     9
   90   102   104   105     9
   98   102   104   105     9
  103   102   104   105     9

#ifdef POSRES
[ position_restraints ]
    1     1    POSRES_FC_BB    POSRES_FC_BB    POSRES_FC_BB   
    3     1    POSRES_FC_SC    POSRES_FC_SC    POSRES_FC_SC   
    5     1    POSRES_FC_BB    POSRES_FC_BB    POSRES_FC_BB   
    8     1    POSRES_FC_BB    POSRES_FC_BB    POSRES_FC_BB   
    9     1    POSRES_FC_BB    POSRES_FC_BB    POSRES_FC_BB   
   11     1    POSRES_FC_SC    POSRES_FC_SC    POSRES_FC_SC   
   13     1    POSRES_FC_BB    POSRES_FC_BB    POSRES_FC_BB   
   15     1    POSRES_FC_SC    POSRES_FC_SC    POSRES_FC_SC   
   17     1    POSRES_FC_BB    POSRES_FC_BB    POSRES_FC_BB   
   19     1    POSRES_FC_SC    POSRES_FC_SC    POSRES_FC_SC   
   20     1    POSRES_FC_BB    POSRES_FC_BB    POSRES_FC_BB   
   22     1    POSRES_FC_BB    POSRES_FC_BB    POSRES_FC_BB   
   25     1    POSRES_FC_BB    POSRES_FC_BB    POSRES_FC_BB   
   26     1    POSRES_FC_BB    POSRES_FC_BB    POSRES_FC_BB   
   28     1    POSRES_FC_SC    POSRES_FC_SC    POSRES_FC_SC   
   30     1    POSRES_FC_BB    POSRES_FC_BB    POSRES_FC_BB   
   32     1    POSRES_FC_SC    POSRES_FC_SC    POSRES_FC_SC   
   34     1    POSRES_FC_BB    POSRES_FC_BB    POSRES_FC_BB   
   36     1    POSRES_FC_SC    POSRES_FC_SC    POSRES_FC_SC   
   37     1    POSRES_FC_BB    POSRES_FC_BB    POSRES_FC_BB   
   39     1    POSRES_FC_BB    POSRES_FC_BB    POSRES_FC_BB   
   42     1    POSRES_FC_BB    POSRES_FC_BB    POSRES_FC_BB   
   43     1    POSRES_FC_BB    POSRES_FC_BB    POSRES_FC_BB   
   45     1    POSRES_FC_SC    POSRES_FC_SC    POSRES_FC_SC   
   47     1    POSRES_FC_BB    POSRES_FC_BB    POSRES_FC_BB   
   49     1    POSRES_FC_SC    POSRES_FC_SC    POSRES_FC_SC   
   51     1    POSRES_FC_BB    POSRES_FC_BB    POSRES_FC_BB   
   53     1    POSRES_FC_SC    POSRES_FC_SC    POSRES_FC_SC   
   54     1    POSRES_FC_BB    POSRES_FC_BB    POSRES_FC_BB   
   56     1    POSRES_FC_BB    POSRES_FC_BB    POSRES_FC_BB   
   59     1    POSRES_FC_BB    POSRES_FC_BB    POSRES_FC_BB   
   60     1    POSRES_FC_BB    POSRES_FC_BB    POSRES_FC_BB   
   62     1    POSRES_FC_SC    POSRES_FC_SC    POSRES_FC_SC   
   64     1    POSRES_FC_BB    POSRES_FC_BB    POSRES_FC_BB   
   66     1    POSRES_FC_SC    POSRES_FC_SC    POSRES_FC_SC   
   68     1    POSRES_FC_BB    POSRES_FC_BB    POSRES_FC_BB   
   70     1    POSRES_FC_SC    POSRES_FC_SC    POSRES_FC_SC   
   71     1    POSRES_FC_BB    POSRES_FC_BB    POSRES_FC_BB   
   73     1    POSRES_FC_BB    POSRES_FC_BB    POSRES_FC_BB   
   76     1    POSRES_FC_BB    POSRES_FC_BB    POSRES_FC_BB   
   77     1    POSRES_FC_BB    POSRES_FC_BB    POSRES_FC_BB   
   79     1    POSRES_FC_SC    POSRES_FC_SC    POSRES_FC_SC   
   81     1    POSRES_FC_BB    POSRES_FC_BB    POSRES_FC_BB   
   83     1    POSRES_FC_SC    POSRES_FC_SC    POSRES_FC_SC   
   85     1    POSRES_FC_BB    POSRES_FC_BB    POSRES_FC_BB   
   87     1    POSRES_FC_SC    POSRES_FC_SC    POSRES_FC_SC   
   88     1    POSRES_FC_BB    POSRES_FC_BB    POSRES_FC_BB   
   90     1    POSRES_FC_BB    POSRES_FC_BB    POSRES_FC_BB   
   93     1    POSRES_FC_BB    POSRES_FC_BB    POSRES_FC_BB   
   94     1    POSRES_FC_BB    POSRES_FC_BB    POSRES_FC_BB   
   96     1    POSRES_FC_SC    POSRES_FC_SC    POSRES_FC_SC   
   98     1    POSRES_FC_BB    POSRES_FC_BB    POSRES_FC_BB   
  100     1    POSRES_FC_SC    POSRES_FC_SC    POSRES_FC_SC   
  102     1    POSRES_FC_BB    POSRES_FC_BB    POSRES_FC_BB   
  104     1    POSRES_FC_SC    POSRES_FC_SC    POSRES_FC_SC   
#endif

#ifdef DIHRES
[ dihedral_restraints ]
    1     8     5    17     1     60.0      2.5       DIHRES_FC
    8     5    17    13     1    -60.0      2.5       DIHRES_FC
    5    17    13     9     1     60.0      2.5       DIHRES_FC
   17    13     9     1     1    -60.0      2.5       DIHRES_FC
   13     9     1     8     1     60.0      2.5       DIHRES_FC
    9     1     8     5     1    -60.0      2.5       DIHRES_FC
   20    25    22    34     1     60.0      2.5       DIHRES_FC
   25    22    34    30     1    -60.0      2.5       DIHRES_FC
   22    34    30    26     1     60.0      2.5       DIHRES_FC
   34    30    26    20     1    -60.0      2.5       DIHRES_FC
   30    26    20    25     1     60.0      2.5       DIHRES_FC
   26    20    25    22     1    -60.0      2.5       DIHRES_FC
   37    42    39    51     1     60.0      2.5       DIHRES_FC
   42    39    51    47     1    -60.0      2.5       DIHRES_FC
   39    51    47    43     1     60.0      2.5       DIHRES_FC
   51    47    43    37     1    -60.0      2.5       DIHRES_FC
   47    43    37    42     1     60.0      2.5       DIHRES_FC
   43    37    42    39     1    -60.0      2.5       DIHRES_FC
   54    59    56    68     1     60.0      2.5       DIHRES_FC
   59    56    68    64     1    -60.0      2.5       DIHRES_FC
   56    68    64    60     1     60.0      2.5       DIHRES_FC
   68    64    60    54     1    -60.0      2.5       DIHRES_FC
   64    60    54    59     1     60.0      2.5       DIHRES_FC
   60    54    59    56     1    -60.0      2.5       DIHRES_FC
   71    76    73    85     1     60.0      2.5       DIHRES_FC
   76    73    85    81     1    -60.0      2.5       DIHRES_FC
   73    85    81    77     1     60.0      2.5       DIHRES_FC
   85    81    77    71     1    -60.0      2.5       DIHRES_FC
   81    77    71    76     1     60.0      2.5       DIHRES_FC
   77    71    76    73     1    -60.0      2.5       DIHRES_FC
   88    93    90   102     1     60.0      2.5       DIHRES_FC
   93    90   102    98     1    -60.0      2.5       DIHRES_FC
   90   102    98    94     1     60.0      2.5       DIHRES_FC
  102    98    94    88     1    -60.0      2.5       DIHRES_FC
   98    94    88    93     1     60.0      2.5       DIHRES_FC
   94    88    93    90     1    -60.0      2.5       DIHRES_FC
#endif
